<?xml version="1.0" encoding="UTF-8"?>

<!-- generated on 2026-05-04 22:05:52 by Eclipse SUMO sumo Version 1.12.0
<configuration xmlns:xsi="http://www.w3.org/2001/XMLSchema-instance" xsi:noNamespaceSchemaLocation="http://sumo.dlr.de/xsd/sumoConfiguration.xsd">

    <input>
        <net-file value="/root/llm-traffic/data/cross_intersection.net.xml"/>
        <route-files value="/root/llm-traffic/data/cross_intersection.rou.xml"/>
    </input>

    <output>
        <fcd-output value="/root/llm-traffic/data/fcd_output.xml"/>
    </output>

    <time>
        <begin value="0"/>
        <end value="3600"/>
        <step-length value="1"/>
    </time>

    <report>
        <verbose value="false"/>
        <no-step-log value="true"/>
    </report>

    <traci_server>
        <remote-port value="43751"/>
    </traci_server>

    <gui_only>
        <tracker-interval value="1"/>
    </gui_only>

</configuration>
-->

<fcd-export xmlns:xsi="http://www.w3.org/2001/XMLSchema-instance" xsi:noNamespaceSchemaLocation="http://sumo.dlr.de/xsd/fcd_file.xsd">
    <timestep time="0.00">
        <vehicle id="f_EN.0" x="161.29" y="104.80" angle="270.00" type="car" speed="13.03" pos="38.71" lane="E_E_in_0" slope="0.00"/>
        <vehicle id="f_ES.0" x="128.11" y="104.80" angle="270.00" type="car" speed="10.40" pos="71.89" lane="E_E_in_0" slope="0.00"/>
        <vehicle id="f_EW.0" x="200.00" y="104.80" angle="270.00" type="car" speed="14.53" pos="0.00" lane="E_E_in_0" slope="0.00"/>
        <vehicle id="f_NE.0" x="95.20" y="160.51" angle="180.00" type="car" speed="14.03" pos="39.49" lane="E_N_in_0" slope="0.00"/>
        <vehicle id="f_NS.0" x="95.20" y="200.00" angle="180.00" type="car" speed="14.72" pos="0.00" lane="E_N_in_0" slope="0.00"/>
        <vehicle id="f_NW.0" x="95.20" y="123.77" angle="180.00" type="car" speed="15.04" pos="76.23" lane="E_N_in_0" slope="0.00"/>
        <vehicle id="f_SE.0" x="104.80" y="33.20" angle="0.00" type="car" speed="14.31" pos="33.20" lane="E_S_in_0" slope="0.00"/>
        <vehicle id="f_SN.0" x="104.80" y="0.00" angle="0.00" type="car" speed="13.03" pos="0.00" lane="E_S_in_0" slope="0.00"/>
        <vehicle id="f_SW.0" x="104.80" y="71.04" angle="0.00" type="car" speed="10.69" pos="71.04" lane="E_S_in_0" slope="0.00"/>
        <vehicle id="f_WE.0" x="0.00" y="95.20" angle="90.00" type="car" speed="12.31" pos="0.00" lane="E_W_in_0" slope="0.00"/>
        <vehicle id="f_WN.0" x="31.02" y="95.20" angle="90.00" type="car" speed="15.15" pos="31.02" lane="E_W_in_0" slope="0.00"/>
        <vehicle id="f_WS.0" x="72.22" y="95.20" angle="90.00" type="car" speed="10.29" pos="72.22" lane="E_W_in_0" slope="0.00"/>
    </timestep>
    <timestep time="1.00">
        <vehicle id="f_EN.0" x="148.69" y="104.80" angle="270.00" type="car" speed="12.61" pos="51.31" lane="E_E_in_0" slope="0.00"/>
        <vehicle id="f_ES.0" x="118.79" y="101.60" angle="270.00" type="car" speed="9.32" pos="81.21" lane="E_E_in_1" slope="0.00"/>
        <vehicle id="f_EW.0" x="185.62" y="104.80" angle="270.00" type="car" speed="14.38" pos="14.38" lane="E_E_in_0" slope="0.00"/>
        <vehicle id="f_NE.0" x="98.40" y="146.70" angle="180.00" type="car" speed="13.81" pos="53.30" lane="E_N_in_1" slope="0.00"/>
        <vehicle id="f_NS.0" x="95.20" y="186.26" angle="180.00" type="car" speed="13.74" pos="13.74" lane="E_N_in_0" slope="0.00"/>
        <vehicle id="f_NW.0" x="95.20" y="113.23" angle="180.00" type="car" speed="10.54" pos="86.77" lane="E_N_in_0" slope="0.00"/>
        <vehicle id="f_SE.0" x="104.80" y="46.63" angle="0.00" type="car" speed="13.43" pos="46.63" lane="E_S_in_0" slope="0.00"/>
        <vehicle id="f_SN.0" x="104.80" y="12.44" angle="0.00" type="car" speed="12.44" pos="12.44" lane="E_S_in_0" slope="0.00"/>
        <vehicle id="f_SW.0" x="101.60" y="81.05" angle="0.00" type="car" speed="10.00" pos="81.05" lane="E_S_in_1" slope="0.00"/>
        <vehicle id="f_WE.0" x="11.13" y="95.20" angle="90.00" type="car" speed="11.13" pos="11.13" lane="E_W_in_0" slope="0.00"/>
        <vehicle id="f_WN.0" x="45.68" y="98.40" angle="90.00" type="car" speed="14.66" pos="45.68" lane="E_W_in_1" slope="0.00"/>
        <vehicle id="f_WS.0" x="81.37" y="95.20" angle="90.00" type="car" speed="9.15" pos="81.37" lane="E_W_in_0" slope="0.00"/>
    </timestep>
    <timestep time="2.00">
        <vehicle id="f_EN.0" x="136.29" y="104.80" angle="270.00" type="car" speed="12.40" pos="63.71" lane="E_E_in_0" slope="0.00"/>
        <vehicle id="f_ES.0" x="113.27" y="101.60" angle="270.00" type="car" speed="5.53" pos="86.73" lane="E_E_in_1" slope="0.00"/>
        <vehicle id="f_EW.0" x="171.97" y="104.80" angle="270.00" type="car" speed="13.66" pos="28.03" lane="E_E_in_0" slope="0.00"/>
        <vehicle id="f_NE.0" x="98.40" y="133.53" angle="180.00" type="car" speed="13.16" pos="66.47" lane="E_N_in_1" slope="0.00"/>
        <vehicle id="f_NS.0" x="95.20" y="171.93" angle="180.00" type="car" speed="14.33" pos="28.07" lane="E_N_in_0" slope="0.00"/>
        <vehicle id="f_NW.0" x="94.13" y="106.76" angle="192.58" type="car" speed="6.70" pos="3.87" lane=":center_0_0" slope="0.00"/>
        <vehicle id="f_SE.0" x="104.80" y="60.78" angle="0.00" type="car" speed="14.15" pos="60.78" lane="E_S_in_0" slope="0.00"/>
        <vehicle id="f_SN.0" x="104.80" y="25.07" angle="0.00" type="car" speed="12.63" pos="25.07" lane="E_S_in_0" slope="0.00"/>
        <vehicle id="f_SW.0" x="101.60" y="88.98" angle="0.00" type="car" speed="7.93" pos="88.98" lane="E_S_in_1" slope="0.00"/>
        <vehicle id="f_WE.0" x="22.28" y="95.20" angle="90.00" type="car" speed="11.15" pos="22.28" lane="E_W_in_0" slope="0.00"/>
        <vehicle id="f_WN.0" x="59.54" y="98.40" angle="90.00" type="car" speed="13.87" pos="59.54" lane="E_W_in_1" slope="0.00"/>
        <vehicle id="f_WS.0" x="86.93" y="95.20" angle="90.00" type="car" speed="5.57" pos="86.93" lane="E_W_in_0" slope="0.00"/>
    </timestep>
    <timestep time="3.00">
        <vehicle id="f_EN.0" x="124.65" y="104.80" angle="270.00" type="car" speed="11.64" pos="75.35" lane="E_E_in_0" slope="0.00"/>
        <vehicle id="f_ES.0" x="111.52" y="101.60" angle="270.00" type="car" speed="1.75" pos="88.48" lane="E_E_in_1" slope="0.00"/>
        <vehicle id="f_EW.0" x="158.05" y="104.80" angle="270.00" type="car" speed="13.92" pos="41.95" lane="E_E_in_0" slope="0.00"/>
        <vehicle id="f_NE.0" x="98.40" y="120.87" angle="180.00" type="car" speed="12.67" pos="79.13" lane="E_N_in_1" slope="0.00"/>
        <vehicle id="f_NS.0" x="95.20" y="157.66" angle="180.00" type="car" speed="14.27" pos="42.34" lane="E_N_in_0" slope="0.00"/>
        <vehicle id="f_NW.0" x="88.87" y="104.80" angle="254.87" type="car" speed="5.89" pos="0.73" lane="E_W_out_0" slope="0.00"/>
        <vehicle id="f_SE.0" x="104.80" y="74.38" angle="0.00" type="car" speed="13.59" pos="74.38" lane="E_S_in_0" slope="0.00"/>
        <vehicle id="f_SN.0" x="104.80" y="37.77" angle="0.00" type="car" speed="12.70" pos="37.77" lane="E_S_in_0" slope="0.00"/>
        <vehicle id="f_SW.0" x="101.03" y="93.56" angle="353.48" type="car" speed="4.62" pos="4.00" lane=":center_13_0" slope="0.00"/>
        <vehicle id="f_WE.0" x="34.48" y="95.20" angle="90.00" type="car" speed="12.19" pos="34.48" lane="E_W_in_0" slope="0.00"/>
        <vehicle id="f_WN.0" x="72.84" y="98.40" angle="90.00" type="car" speed="13.30" pos="72.84" lane="E_W_in_1" slope="0.00"/>
        <vehicle id="f_WS.0" x="88.22" y="95.20" angle="90.00" type="car" speed="1.29" pos="88.22" lane="E_W_in_0" slope="0.00"/>
    </timestep>
    <timestep time="4.00">
        <vehicle id="f_EN.0" x="116.15" y="104.80" angle="270.00" type="car" speed="8.51" pos="83.85" lane="E_E_in_0" slope="0.00"/>
        <vehicle id="f_ES.0" x="111.42" y="101.60" angle="270.00" type="car" speed="0.10" pos="88.58" lane="E_E_in_1" slope="0.00"/>
        <vehicle id="f_EW.0" x="144.30" y="104.80" angle="270.00" type="car" speed="13.74" pos="55.70" lane="E_E_in_0" slope="0.00"/>
        <vehicle id="f_NE.0" x="98.40" y="111.25" angle="180.00" type="car" speed="9.62" pos="88.75" lane="E_N_in_1" slope="0.00"/>
        <vehicle id="f_NS.0" x="95.20" y="143.98" angle="180.00" type="car" speed="13.68" pos="56.02" lane="E_N_in_0" slope="0.00"/>
        <vehicle id="f_NW.0" x="81.27" y="104.80" angle="270.00" type="car" speed="7.60" pos="8.33" lane="E_W_out_0" slope="0.00"/>
        <vehicle id="f_SE.0" x="104.80" y="84.87" angle="0.00" type="car" speed="10.49" pos="84.87" lane="E_S_in_0" slope="0.00"/>
        <vehicle id="f_SN.0" x="104.80" y="50.73" angle="0.00" type="car" speed="12.96" pos="50.73" lane="E_S_in_0" slope="0.00"/>
        <vehicle id="f_SW.0" x="100.96" y="94.04" angle="352.69" type="car" speed="0.48" pos="4.48" lane=":center_13_0" slope="0.00"/>
        <vehicle id="f_WE.0" x="45.72" y="95.20" angle="90.00" type="car" speed="11.25" pos="45.72" lane="E_W_in_0" slope="0.00"/>
        <vehicle id="f_WN.0" x="82.02" y="98.40" angle="90.00" type="car" speed="9.18" pos="82.02" lane="E_W_in_1" slope="0.00"/>
        <vehicle id="f_WS.0" x="88.52" y="95.20" angle="90.00" type="car" speed="0.30" pos="88.52" lane="E_W_in_0" slope="0.00"/>
    </timestep>
    <timestep time="5.00">
        <vehicle id="f_EN.0" x="111.88" y="104.80" angle="270.00" type="car" speed="4.26" pos="88.12" lane="E_E_in_0" slope="0.00"/>
        <vehicle id="f_ES.0" x="111.41" y="101.60" angle="270.00" type="car" speed="0.01" pos="88.59" lane="E_E_in_1" slope="0.00"/>
        <vehicle id="f_EW.0" x="132.35" y="104.80" angle="270.00" type="car" speed="11.96" pos="67.65" lane="E_E_in_0" slope="0.00"/>
        <vehicle id="f_NE.0" x="99.00" y="106.18" angle="173.05" type="car" speed="5.12" pos="4.26" lane=":center_3_0" slope="0.00"/>
        <vehicle id="f_NS.0" x="95.20" y="130.15" angle="180.00" type="car" speed="13.83" pos="69.85" lane="E_N_in_0" slope="0.00"/>
        <vehicle id="f_NS.1" x="95.20" y="200.00" angle="180.00" type="car" speed="14.46" pos="0.00" lane="E_N_in_0" slope="0.00"/>
        <vehicle id="f_NW.0" x="71.14" y="104.80" angle="270.00" type="car" speed="10.13" pos="18.46" lane="E_W_out_0" slope="0.00"/>
        <vehicle id="f_SE.0" x="104.98" y="90.85" angle="2.06" type="car" speed="5.99" pos="1.27" lane=":center_10_0" slope="0.00"/>
        <vehicle id="f_SN.0" x="104.80" y="62.92" angle="0.00" type="car" speed="12.19" pos="62.92" lane="E_S_in_0" slope="0.00"/>
        <vehicle id="f_SN.1" x="104.80" y="0.00" angle="0.00" type="car" speed="13.03" pos="0.00" lane="E_S_in_0" slope="0.00"/>
        <vehicle id="f_SW.0" x="100.91" y="94.45" angle="352.02" type="car" speed="0.41" pos="4.90" lane=":center_13_0" slope="0.00"/>
        <vehicle id="f_WE.0" x="57.40" y="95.20" angle="90.00" type="car" speed="11.68" pos="57.40" lane="E_W_in_0" slope="0.00"/>
        <vehicle id="f_WN.0" x="86.69" y="98.40" angle="90.00" type="car" speed="4.68" pos="86.69" lane="E_W_in_1" slope="0.00"/>
        <vehicle id="f_WS.0" x="88.60" y="95.20" angle="90.00" type="car" speed="0.07" pos="88.60" lane="E_W_in_0" slope="0.00"/>
    </timestep>
    <timestep time="6.00">
        <vehicle id="f_EN.0" x="111.42" y="104.80" angle="270.00" type="car" speed="0.47" pos="88.58" lane="E_E_in_0" slope="0.00"/>
        <vehicle id="f_ES.0" x="111.41" y="101.60" angle="270.00" type="car" speed="0.00" pos="88.59" lane="E_E_in_1" slope="0.00"/>
        <vehicle id="f_EW.0" x="124.03" y="104.80" angle="270.00" type="car" speed="8.32" pos="75.97" lane="E_E_in_0" slope="0.00"/>
        <vehicle id="f_EW.1" x="200.00" y="104.80" angle="270.00" type="car" speed="2.96" pos="0.00" lane="E_E_in_0" slope="0.00"/>
        <vehicle id="f_NE.0" x="99.09" y="105.57" angle="172.05" type="car" speed="0.62" pos="4.88" lane=":center_3_0" slope="0.00"/>
        <vehicle id="f_NS.0" x="95.20" y="116.70" angle="180.00" type="car" speed="13.45" pos="83.30" lane="E_N_in_0" slope="0.00"/>
        <vehicle id="f_NS.1" x="95.20" y="185.80" angle="180.00" type="car" speed="14.20" pos="14.20" lane="E_N_in_0" slope="0.00"/>
        <vehicle id="f_NW.0" x="58.99" y="104.80" angle="270.00" type="car" speed="12.15" pos="30.61" lane="E_W_out_0" slope="0.00"/>
        <vehicle id="f_SE.0" x="108.77" y="94.97" angle="50.45" type="car" speed="6.12" pos="7.39" lane=":center_10_0" slope="0.00"/>
        <vehicle id="f_SN.0" x="104.80" y="74.22" angle="0.00" type="car" speed="11.31" pos="74.22" lane="E_S_in_0" slope="0.00"/>
        <vehicle id="f_SN.1" x="104.80" y="14.68" angle="0.00" type="car" speed="14.68" pos="14.68" lane="E_S_in_0" slope="0.00"/>
        <vehicle id="f_SW.0" x="100.90" y="94.46" angle="352.00" type="car" speed="0.01" pos="4.91" lane=":center_13_0" slope="0.00"/>
        <vehicle id="f_WE.0" x="68.96" y="95.20" angle="90.00" type="car" speed="11.56" pos="68.96" lane="E_W_in_0" slope="0.00"/>
        <vehicle id="f_WE.1" x="0.00" y="95.20" angle="90.00" type="car" speed="2.50" pos="0.00" lane="E_W_in_0" slope="0.00"/>
        <vehicle id="f_WN.0" x="88.37" y="98.40" angle="90.00" type="car" speed="1.68" pos="88.37" lane="E_W_in_1" slope="0.00"/>
        <vehicle id="f_WS.0" x="88.60" y="95.20" angle="90.00" type="car" speed="0.00" pos="88.60" lane="E_W_in_0" slope="0.00"/>
    </timestep>
    <timestep time="7.00">
        <vehicle id="f_EN.0" x="111.40" y="104.80" angle="270.00" type="car" speed="0.02" pos="88.60" lane="E_E_in_0" slope="0.00"/>
        <vehicle id="f_ES.0" x="111.40" y="101.60" angle="270.00" type="car" speed="0.00" pos="88.60" lane="E_E_in_1" slope="0.00"/>
        <vehicle id="f_EW.0" x="119.49" y="104.80" angle="270.00" type="car" speed="4.54" pos="80.51" lane="E_E_in_0" slope="0.00"/>
        <vehicle id="f_EW.1" x="195.47" y="104.80" angle="270.00" type="car" speed="4.53" pos="4.53" lane="E_E_in_0" slope="0.00"/>
        <vehicle id="f_NE.0" x="99.09" y="105.55" angle="172.02" type="car" speed="0.02" pos="4.90" lane=":center_3_0" slope="0.00"/>
        <vehicle id="f_NS.0" x="95.20" y="102.87" angle="180.00" type="car" speed="13.83" pos="7.53" lane=":center_1_0" slope="0.00"/>
        <vehicle id="f_NS.1" x="95.20" y="171.38" angle="180.00" type="car" speed="14.42" pos="28.62" lane="E_N_in_0" slope="0.00"/>
        <vehicle id="f_NW.0" x="45.54" y="104.80" angle="270.00" type="car" speed="13.45" pos="44.06" lane="E_W_out_0" slope="0.00"/>
        <vehicle id="f_SE.0" x="114.69" y="95.20" angle="88.85" type="car" speed="5.93" pos="4.29" lane="E_E_out_0" slope="0.00"/>
        <vehicle id="f_SN.0" x="104.80" y="83.46" angle="0.00" type="car" speed="9.24" pos="83.46" lane="E_S_in_0" slope="0.00"/>
        <vehicle id="f_SN.1" x="104.80" y="29.82" angle="0.00" type="car" speed="15.14" pos="29.82" lane="E_S_in_0" slope="0.00"/>
        <vehicle id="f_SW.0" x="100.90" y="94.46" angle="352.00" type="car" speed="0.00" pos="4.91" lane=":center_13_0" slope="0.00"/>
        <vehicle id="f_WE.0" x="76.84" y="95.20" angle="90.00" type="car" speed="7.88" pos="76.84" lane="E_W_in_0" slope="0.00"/>
        <vehicle id="f_WE.1" x="3.97" y="95.20" angle="90.00" type="car" speed="3.97" pos="3.97" lane="E_W_in_0" slope="0.00"/>
        <vehicle id="f_WN.0" x="88.56" y="98.40" angle="90.00" type="car" speed="0.19" pos="88.56" lane="E_W_in_1" slope="0.00"/>
        <vehicle id="f_WS.0" x="88.60" y="95.20" angle="90.00" type="car" speed="0.00" pos="88.60" lane="E_W_in_0" slope="0.00"/>
    </timestep>
    <timestep time="8.00">
        <vehicle id="f_EN.0" x="111.40" y="104.80" angle="270.00" type="car" speed="0.00" pos="88.60" lane="E_E_in_0" slope="0.00"/>
        <vehicle id="f_ES.0" x="111.40" y="101.60" angle="270.00" type="car" speed="0.00" pos="88.60" lane="E_E_in_1" slope="0.00"/>
        <vehicle id="f_EW.0" x="119.04" y="104.80" angle="270.00" type="car" speed="0.45" pos="80.96" lane="E_E_in_0" slope="0.00"/>
        <vehicle id="f_EW.1" x="188.38" y="104.80" angle="270.00" type="car" speed="7.09" pos="11.62" lane="E_E_in_0" slope="0.00"/>
        <vehicle id="f_NE.0" x="99.10" y="105.54" angle="172.00" type="car" speed="0.01" pos="4.91" lane=":center_3_0" slope="0.00"/>
        <vehicle id="f_NS.0" x="95.20" y="88.15" angle="180.00" type="car" speed="14.72" pos="1.45" lane="E_S_out_0" slope="0.00"/>
        <vehicle id="f_NS.1" x="95.20" y="158.02" angle="180.00" type="car" speed="13.37" pos="41.98" lane="E_N_in_0" slope="0.00"/>
        <vehicle id="f_NW.0" x="31.51" y="104.80" angle="270.00" type="car" speed="14.03" pos="58.09" lane="E_W_out_0" slope="0.00"/>
        <vehicle id="f_SE.0" x="122.16" y="95.20" angle="90.00" type="car" speed="7.47" pos="11.76" lane="E_E_out_0" slope="0.00"/>
        <vehicle id="f_SN.0" x="104.80" y="94.09" angle="0.00" type="car" speed="10.63" pos="4.49" lane=":center_11_0" slope="0.00"/>
        <vehicle id="f_SN.1" x="104.80" y="44.14" angle="0.00" type="car" speed="14.32" pos="44.14" lane="E_S_in_0" slope="0.00"/>
        <vehicle id="f_SW.0" x="100.90" y="94.46" angle="352.00" type="car" speed="0.00" pos="4.91" lane=":center_13_0" slope="0.00"/>
        <vehicle id="f_WE.0" x="80.22" y="95.20" angle="90.00" type="car" speed="3.38" pos="80.22" lane="E_W_in_0" slope="0.00"/>
        <vehicle id="f_WE.1" x="9.67" y="95.20" angle="90.00" type="car" speed="5.70" pos="9.67" lane="E_W_in_0" slope="0.00"/>
        <vehicle id="f_WN.0" x="88.60" y="98.40" angle="90.00" type="car" speed="0.04" pos="88.60" lane="E_W_in_1" slope="0.00"/>
        <vehicle id="f_WS.0" x="88.60" y="95.20" angle="90.00" type="car" speed="0.00" pos="88.60" lane="E_W_in_0" slope="0.00"/>
    </timestep>
    <timestep time="9.00">
        <vehicle id="f_EN.0" x="111.40" y="104.80" angle="270.00" type="car" speed="0.00" pos="88.60" lane="E_E_in_0" slope="0.00"/>
        <vehicle id="f_ES.0" x="111.40" y="101.60" angle="270.00" type="car" speed="0.00" pos="88.60" lane="E_E_in_1" slope="0.00"/>
        <vehicle id="f_EW.0" x="118.93" y="104.80" angle="270.00" type="car" speed="0.11" pos="81.07" lane="E_E_in_0" slope="0.00"/>
        <vehicle id="f_EW.1" x="179.80" y="104.80" angle="270.00" type="car" speed="8.58" pos="20.20" lane="E_E_in_0" slope="0.00"/>
        <vehicle id="f_NE.0" x="99.10" y="105.54" angle="172.00" type="car" speed="0.00" pos="4.91" lane=":center_3_0" slope="0.00"/>
        <vehicle id="f_NS.0" x="95.20" y="74.65" angle="180.00" type="car" speed="13.50" pos="14.95" lane="E_S_out_0" slope="0.00"/>
        <vehicle id="f_NS.1" x="95.20" y="144.68" angle="180.00" type="car" speed="13.34" pos="55.32" lane="E_N_in_0" slope="0.00"/>
        <vehicle id="f_NW.0" x="17.74" y="104.80" angle="270.00" type="car" speed="13.77" pos="71.86" lane="E_W_out_0" slope="0.00"/>
        <vehicle id="f_SE.0" x="131.04" y="95.20" angle="90.00" type="car" speed="8.88" pos="20.64" lane="E_E_out_0" slope="0.00"/>
        <vehicle id="f_SN.0" x="104.80" y="106.49" angle="0.00" type="car" speed="12.39" pos="16.89" lane=":center_11_0" slope="0.00"/>
        <vehicle id="f_SN.1" x="104.80" y="58.54" angle="0.00" type="car" speed="14.40" pos="58.54" lane="E_S_in_0" slope="0.00"/>
        <vehicle id="f_SW.0" x="100.90" y="94.46" angle="352.00" type="car" speed="0.00" pos="4.91" lane=":center_13_0" slope="0.00"/>
        <vehicle id="f_WE.0" x="81.04" y="95.20" angle="90.00" type="car" speed="0.81" pos="81.04" lane="E_W_in_0" slope="0.00"/>
        <vehicle id="f_WE.1" x="17.75" y="95.20" angle="90.00" type="car" speed="8.08" pos="17.75" lane="E_W_in_0" slope="0.00"/>
        <vehicle id="f_WN.0" x="88.60" y="98.40" angle="90.00" type="car" speed="0.00" pos="88.60" lane="E_W_in_1" slope="0.00"/>
        <vehicle id="f_WS.0" x="88.60" y="95.20" angle="90.00" type="car" speed="0.00" pos="88.60" lane="E_W_in_0" slope="0.00"/>
    </timestep>
    <timestep time="10.00">
        <vehicle id="f_EN.0" x="111.40" y="104.80" angle="270.00" type="car" speed="0.00" pos="88.60" lane="E_E_in_0" slope="0.00"/>
        <vehicle id="f_ES.0" x="111.40" y="101.60" angle="270.00" type="car" speed="0.00" pos="88.60" lane="E_E_in_1" slope="0.00"/>
        <vehicle id="f_EW.0" x="118.92" y="104.80" angle="270.00" type="car" speed="0.02" pos="81.08" lane="E_E_in_0" slope="0.00"/>
        <vehicle id="f_EW.1" x="169.52" y="104.80" angle="270.00" type="car" speed="10.28" pos="30.48" lane="E_E_in_0" slope="0.00"/>
        <vehicle id="f_NE.0" x="99.10" y="105.54" angle="172.00" type="car" speed="0.00" pos="4.91" lane=":center_3_0" slope="0.00"/>
        <vehicle id="f_NS.0" x="95.20" y="61.20" angle="180.00" type="car" speed="13.45" pos="28.40" lane="E_S_out_0" slope="0.00"/>
        <vehicle id="f_NS.1" x="95.20" y="130.76" angle="180.00" type="car" speed="13.91" pos="69.24" lane="E_N_in_0" slope="0.00"/>
        <vehicle id="f_NS.2" x="95.20" y="200.00" angle="180.00" type="car" speed="12.20" pos="0.00" lane="E_N_in_0" slope="0.00"/>
        <vehicle id="f_NW.0" x="3.71" y="104.80" angle="270.00" type="car" speed="14.02" pos="85.89" lane="E_W_out_0" slope="0.00"/>
        <vehicle id="f_SE.0" x="141.95" y="95.20" angle="90.00" type="car" speed="10.92" pos="31.55" lane="E_E_out_0" slope="0.00"/>
        <vehicle id="f_SN.0" x="104.80" y="119.40" angle="0.00" type="car" speed="12.92" pos="9.00" lane="E_N_out_0" slope="0.00"/>
        <vehicle id="f_SN.1" x="104.80" y="72.90" angle="0.00" type="car" speed="14.36" pos="72.90" lane="E_S_in_0" slope="0.00"/>
        <vehicle id="f_SN.2" x="104.80" y="0.00" angle="0.00" type="car" speed="13.08" pos="0.00" lane="E_S_in_0" slope="0.00"/>
        <vehicle id="f_SW.0" x="100.90" y="94.46" angle="352.00" type="car" speed="0.00" pos="4.91" lane=":center_13_0" slope="0.00"/>
        <vehicle id="f_WE.0" x="81.08" y="95.20" angle="90.00" type="car" speed="0.04" pos="81.08" lane="E_W_in_0" slope="0.00"/>
        <vehicle id="f_WE.1" x="27.67" y="95.20" angle="90.00" type="car" speed="9.93" pos="27.67" lane="E_W_in_0" slope="0.00"/>
        <vehicle id="f_WN.0" x="88.60" y="98.40" angle="90.00" type="car" speed="0.00" pos="88.60" lane="E_W_in_1" slope="0.00"/>
        <vehicle id="f_WS.0" x="88.60" y="95.20" angle="90.00" type="car" speed="0.00" pos="88.60" lane="E_W_in_0" slope="0.00"/>
    </timestep>
    <timestep time="11.00">
        <vehicle id="f_EN.0" x="111.40" y="104.80" angle="270.00" type="car" speed="0.00" pos="88.60" lane="E_E_in_0" slope="0.00"/>
        <vehicle id="f_ES.0" x="111.40" y="101.60" angle="270.00" type="car" speed="0.00" pos="88.60" lane="E_E_in_1" slope="0.00"/>
        <vehicle id="f_EW.0" x="118.90" y="104.80" angle="270.00" type="car" speed="0.01" pos="81.10" lane="E_E_in_0" slope="0.00"/>
        <vehicle id="f_EW.1" x="157.59" y="104.80" angle="270.00" type="car" speed="11.92" pos="42.41" lane="E_E_in_0" slope="0.00"/>
        <vehicle id="f_NE.0" x="99.10" y="105.54" angle="172.00" type="car" speed="0.00" pos="4.91" lane=":center_3_0" slope="0.00"/>
        <vehicle id="f_NS.0" x="95.20" y="47.64" angle="180.00" type="car" speed="13.56" pos="41.96" lane="E_S_out_0" slope="0.00"/>
        <vehicle id="f_NS.1" x="95.20" y="116.95" angle="180.00" type="car" speed="13.82" pos="83.05" lane="E_N_in_0" slope="0.00"/>
        <vehicle id="f_NS.2" x="95.20" y="188.73" angle="180.00" type="car" speed="11.27" pos="11.27" lane="E_N_in_0" slope="0.00"/>
        <vehicle id="f_SE.0" x="154.44" y="95.20" angle="90.00" type="car" speed="12.48" pos="44.04" lane="E_E_out_0" slope="0.00"/>
        <vehicle id="f_SN.0" x="104.80" y="131.72" angle="0.00" type="car" speed="12.31" pos="21.32" lane="E_N_out_0" slope="0.00"/>
        <vehicle id="f_SN.1" x="104.80" y="87.58" angle="0.00" type="car" speed="14.68" pos="87.58" lane="E_S_in_0" slope="0.00"/>
        <vehicle id="f_SN.2" x="104.80" y="11.88" angle="0.00" type="car" speed="11.88" pos="11.88" lane="E_S_in_0" slope="0.00"/>
        <vehicle id="f_SW.0" x="100.90" y="94.46" angle="352.00" type="car" speed="0.00" pos="4.91" lane=":center_13_0" slope="0.00"/>
        <vehicle id="f_WE.0" x="81.09" y="95.20" angle="90.00" type="car" speed="0.01" pos="81.09" lane="E_W_in_0" slope="0.00"/>
        <vehicle id="f_WE.1" x="39.45" y="95.20" angle="90.00" type="car" speed="11.77" pos="39.45" lane="E_W_in_0" slope="0.00"/>
        <vehicle id="f_WN.0" x="88.60" y="98.40" angle="90.00" type="car" speed="0.00" pos="88.60" lane="E_W_in_1" slope="0.00"/>
        <vehicle id="f_WS.0" x="88.60" y="95.20" angle="90.00" type="car" speed="0.00" pos="88.60" lane="E_W_in_0" slope="0.00"/>
    </timestep>
    <timestep time="12.00">
        <vehicle id="f_EN.0" x="111.40" y="104.80" angle="270.00" type="car" speed="0.00" pos="88.60" lane="E_E_in_0" slope="0.00"/>
        <vehicle id="f_ES.0" x="111.40" y="101.60" angle="270.00" type="car" speed="0.00" pos="88.60" lane="E_E_in_1" slope="0.00"/>
        <vehicle id="f_EW.0" x="118.90" y="104.80" angle="270.00" type="car" speed="0.00" pos="81.10" lane="E_E_in_0" slope="0.00"/>
        <vehicle id="f_EW.1" x="144.72" y="104.80" angle="270.00" type="car" speed="12.88" pos="55.28" lane="E_E_in_0" slope="0.00"/>
        <vehicle id="f_EW.2" x="200.00" y="104.80" angle="270.00" type="car" speed="2.50" pos="0.00" lane="E_E_in_0" slope="0.00"/>
        <vehicle id="f_NE.0" x="99.10" y="105.54" angle="172.00" type="car" speed="0.00" pos="4.91" lane=":center_3_0" slope="0.00"/>
        <vehicle id="f_NE.1" x="95.20" y="200.00" angle="180.00" type="car" speed="12.00" pos="0.00" lane="E_N_in_0" slope="0.00"/>
        <vehicle id="f_NS.0" x="95.20" y="32.97" angle="180.00" type="car" speed="14.67" pos="56.63" lane="E_S_out_0" slope="0.00"/>
        <vehicle id="f_NS.1" x="95.20" y="102.58" angle="180.00" type="car" speed="14.37" pos="7.82" lane=":center_1_0" slope="0.00"/>
        <vehicle id="f_NS.2" x="95.20" y="177.56" angle="180.00" type="car" speed="11.17" pos="22.44" lane="E_N_in_0" slope="0.00"/>
        <vehicle id="f_NW.1" x="95.20" y="149.95" angle="180.00" type="car" speed="16.09" pos="50.05" lane="E_N_in_0" slope="0.00"/>
        <vehicle id="f_SE.0" x="167.87" y="95.20" angle="90.00" type="car" speed="13.44" pos="57.47" lane="E_E_out_0" slope="0.00"/>
        <vehicle id="f_SE.1" x="104.80" y="0.00" angle="0.00" type="car" speed="12.78" pos="0.00" lane="E_S_in_0" slope="0.00"/>
        <vehicle id="f_SN.0" x="104.80" y="144.09" angle="0.00" type="car" speed="12.37" pos="33.69" lane="E_N_out_0" slope="0.00"/>
        <vehicle id="f_SN.1" x="104.80" y="102.93" angle="0.00" type="car" speed="15.35" pos="13.33" lane=":center_11_0" slope="0.00"/>
        <vehicle id="f_SN.2" x="104.80" y="23.83" angle="0.00" type="car" speed="11.95" pos="23.83" lane="E_S_in_0" slope="0.00"/>
        <vehicle id="f_SW.0" x="100.90" y="94.46" angle="352.00" type="car" speed="0.00" pos="4.91" lane=":center_13_0" slope="0.00"/>
        <vehicle id="f_SW.1" x="104.80" y="53.77" angle="0.00" type="car" speed="14.03" pos="53.77" lane="E_S_in_0" slope="0.00"/>
        <vehicle id="f_WE.0" x="81.10" y="95.20" angle="90.00" type="car" speed="0.01" pos="81.10" lane="E_W_in_0" slope="0.00"/>
        <vehicle id="f_WE.1" x="52.27" y="95.20" angle="90.00" type="car" speed="12.82" pos="52.27" lane="E_W_in_0" slope="0.00"/>
        <vehicle id="f_WE.2" x="0.00" y="95.20" angle="90.00" type="car" speed="2.50" pos="0.00" lane="E_W_in_0" slope="0.00"/>
        <vehicle id="f_WN.0" x="88.60" y="98.40" angle="90.00" type="car" speed="0.00" pos="88.60" lane="E_W_in_1" slope="0.00"/>
        <vehicle id="f_WS.0" x="88.60" y="95.20" angle="90.00" type="car" speed="0.00" pos="88.60" lane="E_W_in_0" slope="0.00"/>
    </timestep>
    <timestep time="13.00">
        <vehicle id="f_EN.0" x="111.40" y="104.80" angle="270.00" type="car" speed="0.00" pos="88.60" lane="E_E_in_0" slope="0.00"/>
        <vehicle id="f_ES.0" x="111.40" y="101.60" angle="270.00" type="car" speed="0.00" pos="88.60" lane="E_E_in_1" slope="0.00"/>
        <vehicle id="f_EW.0" x="118.90" y="104.80" angle="270.00" type="car" speed="0.00" pos="81.10" lane="E_E_in_0" slope="0.00"/>
        <vehicle id="f_EW.1" x="134.74" y="104.80" angle="270.00" type="car" speed="9.98" pos="65.26" lane="E_E_in_0" slope="0.00"/>
        <vehicle id="f_EW.2" x="196.06" y="104.80" angle="270.00" type="car" speed="3.94" pos="3.94" lane="E_E_in_0" slope="0.00"/>
        <vehicle id="f_NE.0" x="99.10" y="105.54" angle="172.00" type="car" speed="0.00" pos="4.91" lane=":center_3_0" slope="0.00"/>
        <vehicle id="f_NE.1" x="98.40" y="188.77" angle="180.00" type="car" speed="11.23" pos="11.23" lane="E_N_in_1" slope="0.00"/>
        <vehicle id="f_NS.0" x="95.20" y="18.42" angle="180.00" type="car" speed="14.55" pos="71.18" lane="E_S_out_0" slope="0.00"/>
        <vehicle id="f_NS.1" x="95.20" y="88.44" angle="180.00" type="car" speed="14.14" pos="1.16" lane="E_S_out_0" slope="0.00"/>
        <vehicle id="f_NS.2" x="95.20" y="166.45" angle="180.00" type="car" speed="11.11" pos="33.55" lane="E_N_in_0" slope="0.00"/>
        <vehicle id="f_NW.1" x="95.20" y="134.10" angle="180.00" type="car" speed="15.85" pos="65.90" lane="E_N_in_0" slope="0.00"/>
        <vehicle id="f_SE.0" x="181.32" y="95.20" angle="90.00" type="car" speed="13.45" pos="70.92" lane="E_E_out_0" slope="0.00"/>
        <vehicle id="f_SE.1" x="104.80" y="12.65" angle="0.00" type="car" speed="12.65" pos="12.65" lane="E_S_in_0" slope="0.00"/>
        <vehicle id="f_SN.0" x="104.80" y="156.95" angle="0.00" type="car" speed="12.86" pos="46.55" lane="E_N_out_0" slope="0.00"/>
        <vehicle id="f_SN.1" x="104.80" y="117.31" angle="0.00" type="car" speed="14.38" pos="6.91" lane="E_N_out_0" slope="0.00"/>
        <vehicle id="f_SN.2" x="104.80" y="35.84" angle="0.00" type="car" speed="12.01" pos="35.84" lane="E_S_in_0" slope="0.00"/>
        <vehicle id="f_SW.0" x="100.90" y="94.46" angle="352.00" type="car" speed="0.00" pos="4.91" lane=":center_13_0" slope="0.00"/>
        <vehicle id="f_SW.1" x="104.80" y="67.34" angle="0.00" type="car" speed="13.57" pos="67.34" lane="E_S_in_0" slope="0.00"/>